version 2
run General-0-20131113-13:49:58-83335
attr configname General
attr datetime 20131113-13:49:58
attr experiment General
attr inifile omnetpp.ini
attr iterationvars ""
attr iterationvars2 $repetition=0
attr measurement ""
attr network LothianBusNet
attr processid 83335
attr repetition 0
attr replication #0
attr resultdir results
attr runnumber 0
attr seedset 0

vector 9  LothianBusNet.ap.wlan.mgmt  dataQueueLen:vector  ETV
attr interpolationmode  sample-hold
attr title  "data queue length, vector"
vector 31  LothianBusNet.bus[0].wlan.mgmt  dataQueueLen:vector  ETV
attr interpolationmode  sample-hold
attr title  "data queue length, vector"
vector 42  LothianBusNet.ap.wlan.mac  RadioState  ETV
attr enum  "IDLE=0, OFF=4, RECV=1, SLEEP=3, TRANSMIT=2"
attr enumname  RadioState
vector 41  LothianBusNet.ap.wlan.mac  State  ETV
attr enum  "BACKOFF=3, DEFER=1, IDLE=0, RECEIVE=8, WAITACK=4, WAITAIFS=2, WAITCTS=6, WAITMULTICAST=5, WAITSIFS=7"
attr enumname  Ieee80211Mac
vector 48  LothianBusNet.bus[0].wlan.mac  RadioState  ETV
attr enum  "IDLE=0, OFF=4, RECV=1, SLEEP=3, TRANSMIT=2"
attr enumname  RadioState
vector 47  LothianBusNet.bus[0].wlan.mac  State  ETV
attr enum  "BACKOFF=3, DEFER=1, IDLE=0, RECEIVE=8, WAITACK=4, WAITAIFS=2, WAITCTS=6, WAITMULTICAST=5, WAITSIFS=7"
attr enumname  Ieee80211Mac
vector 15  LothianBusNet.ap.wlan.radio  bitrate:vector  ETV
attr interpolationmode  sample-hold
attr title  "tx bitrate, vector"
attr unit  bps
vector 17  LothianBusNet.ap.wlan.radio  radioState:vector  ETV
attr interpolationmode  sample-hold
attr title  "radio state (enum), vector"
vector 16  LothianBusNet.ap.wlan.radio  channelNo:vector  ETV
attr interpolationmode  sample-hold
attr title  "channel no, vector"
vector 37  LothianBusNet.bus[0].wlan.radio  bitrate:vector  ETV
attr interpolationmode  sample-hold
attr title  "tx bitrate, vector"
attr unit  bps
vector 39  LothianBusNet.bus[0].wlan.radio  radioState:vector  ETV
attr interpolationmode  sample-hold
attr title  "radio state (enum), vector"
vector 38  LothianBusNet.bus[0].wlan.radio  channelNo:vector  ETV
attr interpolationmode  sample-hold
attr title  "channel no, vector"
vector 19  LothianBusNet.bus[0].udp  sentPk:vector(packetBytes)  ETV
attr interpolationmode  none
attr source  sentPk
attr title  "packets sent, vector(packetBytes)"
vector 13  LothianBusNet.ap.wlan.mac  rcvdPkFromHL:vector(packetBytes)  ETV
attr interpolationmode  none
attr source  packetReceivedFromUpper
attr title  "packets received from higher layer, vector(packetBytes)"
vector 12  LothianBusNet.ap.wlan.mac  sentDownPk:vector(packetBytes)  ETV
attr interpolationmode  none
attr source  packetSentToLower
attr title  "packets sent to lower layer, vector(packetBytes)"
vector 52  LothianBusNet.bus[0].wlan.radio  snirVector  ETV
vector 36  LothianBusNet.bus[0].wlan.mac  rcvdPkFromLL:vector(packetBytes)  ETV
attr interpolationmode  none
attr source  packetReceivedFromLower
attr title  "packets received from lower layer, vector(packetBytes)"
vector 33  LothianBusNet.bus[0].wlan.mac  passedUpPk:vector(packetBytes)  ETV
attr interpolationmode  none
attr source  packetSentToUpper
attr title  "packets passed to higher layer, vector(packetBytes)"
vector 44  LothianBusNet.ap.wlan.mac  "throughput AC0"  ETV
vector 50  LothianBusNet.bus[0].wlan.mac  "throughput AC0"  ETV
vector 28  LothianBusNet.bus[0].wlan.agent  sentRequest:vector  ETV
attr title  "sent requests, vector"
vector 35  LothianBusNet.bus[0].wlan.mac  rcvdPkFromHL:vector(packetBytes)  ETV
attr interpolationmode  none
attr source  packetReceivedFromUpper
attr title  "packets received from higher layer, vector(packetBytes)"
vector 34  LothianBusNet.bus[0].wlan.mac  sentDownPk:vector(packetBytes)  ETV
attr interpolationmode  none
attr source  packetSentToLower
attr title  "packets sent to lower layer, vector(packetBytes)"
vector 29  LothianBusNet.bus[0].wlan.agent  acceptConfirm:vector  ETV
attr title  "accepted confirms, vector"
vector 46  LothianBusNet.ap.wlan.radio  snirVector  ETV
vector 14  LothianBusNet.ap.wlan.mac  rcvdPkFromLL:vector(packetBytes)  ETV
attr interpolationmode  none
attr source  packetReceivedFromLower
attr title  "packets received from lower layer, vector(packetBytes)"
vector 11  LothianBusNet.ap.wlan.mac  passedUpPk:vector(packetBytes)  ETV
attr interpolationmode  none
attr source  packetSentToUpper
attr title  "packets passed to higher layer, vector(packetBytes)"
vector 1  LothianBusNet.ap.udp  rcvdPk:vector(packetBytes)  ETV
attr interpolationmode  none
attr source  rcvdPk
attr title  "packets received, vector(packetBytes)"
vector 2  LothianBusNet.ap.udp  passedUpPk:vector(count)  ETV
attr interpolationmode  none
attr title  "packets passed up, vector(count)"
vector 40  LothianBusNet.bus[0].wlan.radio  lossRate:vector  ETV
attr interpolationmode  backward-sample-hold
attr title  "packet loss rate, vector"
vector 18  LothianBusNet.ap.wlan.radio  lossRate:vector  ETV
attr interpolationmode  backward-sample-hold
attr title  "packet loss rate, vector"
vector 30  LothianBusNet.bus[0].wlan.agent  dropConfirm:vector  ETV
attr title  "dropped confirms, vector"
1	634	1.003546250206	8
1	1372	2.004626250543	8
1	2185	4.000273251376	8
1	2382	5.000273251868	8
1	3114	6.00272525241	8
1	3892	7.000273253008	8
1	4690	8.000273253655	8
1	4894	9.001229254353	8
1	5615	10.003681255101	8
1	6276	11.001861255904	8
1	6478	12.002617256757	8
1	7122	13.004185257661	8
1	7801	14.000273258619	8
1	8027	15.001373259625	8
1	8210	16.000273260685	8
1	9729	22.001103268102	8
1	10397	23.002455269515	8
1	11095	24.000273270981	8
1	11872	25.009814272491	8
1	13263	31.004383359524	8
1	13990	32.000273362812	8
1	14211	33.003744366139	8
1	15053	35.000273372936	8
1	16485	38.000959383455	8
1	17193	39.001175387049	8
1	17877	40.000273390688	8
1	18098	41.001229394368	8
1	20131	49.000273414865	8
1	20359	50.003240416715	8
1	21077	51.000273418576	8
1	21755	52.000273420439	8
1	22472	53.000273422306	8
1	22684	54.001157424176	8
1	23358	55.000273426053	8
1	25787	63.000273660198	8
1	27158	66.001807708086	8
1	27342	67.001229724206	8
1	28064	68.002410740401	8
1	28274	69.00862475667	8
1	28955	71.000869789433	8
1	29637	72.000833805919	8
1	29832	73.000273822477	8
1	30022	74.000273839101	8
1	32542	87.000274060931	8
1	34315	90.017899632398	8
1	34919	91.001754650182	8
2	634	1.003546250206	1
2	1372	2.004626250543	2
2	2185	4.000273251376	3
2	2382	5.000273251868	4
2	3114	6.00272525241	5
2	3892	7.000273253008	6
2	4690	8.000273253655	7
2	4894	9.001229254353	8
2	5615	10.003681255101	9
2	6276	11.001861255904	10
2	6478	12.002617256757	11
2	7122	13.004185257661	12
2	7801	14.000273258619	13
2	8027	15.001373259625	14
2	8210	16.000273260685	15
2	9729	22.001103268102	16
2	10397	23.002455269515	17
2	11095	24.000273270981	18
2	11872	25.009814272491	19
2	13263	31.004383359524	20
2	13990	32.000273362812	21
2	14211	33.003744366139	22
2	15053	35.000273372936	23
2	16485	38.000959383455	24
2	17193	39.001175387049	25
2	17877	40.000273390688	26
2	18098	41.001229394368	27
2	20131	49.000273414865	28
2	20359	50.003240416715	29
2	21077	51.000273418576	30
2	21755	52.000273420439	31
2	22472	53.000273422306	32
2	22684	54.001157424176	33
2	23358	55.000273426053	34
2	25787	63.000273660198	35
2	27158	66.001807708086	36
2	27342	67.001229724206	37
2	28064	68.002410740401	38
2	28274	69.00862475667	39
2	28955	71.000869789433	40
2	29637	72.000833805919	41
2	29832	73.000273822477	42
2	30022	74.000273839101	43
2	32542	87.000274060931	44
2	34315	90.017899632398	45
2	34919	91.001754650182	46
9	0	0	0
11	111	0.564891300615	34
11	258	0.588955300007	34
11	417	0.604690799247	44
11	630	1.003546250206	70
11	743	1.510200962056	40
11	865	1.810065962056	34
11	1043	1.830024963728	34
11	1177	1.851657464146	44
11	1368	2.004626250543	70
11	1569	3.111094963119	34
11	1700	3.125107468729	34
11	1852	3.140666974339	44
11	2181	4.000273251376	70
11	2378	5.000273251868	70
11	2562	5.510065964882	34
11	2701	5.52339547609	34
11	2850	5.536619987298	44
11	3110	6.00272525241	70
11	3203	6.210200965918	40
11	3336	6.511112965918	34
11	3491	6.534310985214	34
11	3676	6.553460499686	44
11	3888	7.000273253008	70
11	4048	7.610200967654	40
11	4191	7.912699967654	34
11	4331	7.932390991718	34
11	4526	7.953327521798	44
11	4686	8.000273253655	70
11	4890	9.001229254353	70
11	5048	9.510653969647	34
11	5200	9.527550495771	34
11	5344	9.542237021895	44
11	5611	10.003681255101	70
11	5742	10.510065971096	34
11	5897	10.528995011928	34
11	6033	10.548690032344	44
11	6272	11.001861255904	70
11	6474	12.002617256757	70
11	6660	12.614829974303	34
11	6763	12.631996001339	34
11	6941	12.660163541893	44
11	7118	13.004185257661	70
11	7277	13.612819976061	34
11	7430	13.628816037373	34
11	7544	13.644621068029	44
11	7797	14.000273258619	70
11	8023	15.001373259625	70
11	8206	16.000273260685	70
11	8374	16.512483981949	34
11	9147	21.610200988004	40
11	9286	21.927921988004	34
11	9340	21.930324521484	34
11	9551	21.969307188884	44
11	9725	22.001103268102	70
11	9892	22.721768257207	34
11	10059	22.743897865825	34
11	10218	22.768930402031	44
11	10393	23.002455269515	70
11	10586	23.910834000672	34
11	10743	23.92757277391	34
11	10922	23.949424930046	44
11	11091	24.000273270981	70
11	11226	24.406301009578	40
11	11346	24.706166009578	34
11	11480	24.72164255154	34
11	11642	24.736473719388	44
11	11868	25.009814272491	70
11	11930	25.187376262865	40
11	12054	25.487241262865	34
11	12803	30.887241346656	34
11	12948	30.913406771804	34
11	13068	30.931507196952	44
11	13259	31.004383359524	70
11	13387	31.610201180692	40
11	13519	31.910066180692	34
11	13672	31.926972056908	34
11	13829	31.94579421407	44
11	13986	32.000273362812	70
11	14207	33.003744366139	70
11	14421	34.260201197297	40
11	14568	34.564125200672	34
11	14656	34.574771939706	34
11	14819	34.59371367874	44
11	15049	35.000273372936	70
11	15275	36.010066210972	34
11	15420	36.03263946936	34
11	15563	36.051525727748	44
11	15825	37.010201217941	40
11	15944	37.310066217941	34
11	16104	37.334657497371	34
11	16231	37.347265536611	44
11	16481	38.000959383455	70
11	16625	38.51020122855	40
11	16733	38.81006622855	34
11	16877	38.830355762374	34
11	17046	38.85060306311	44
11	17189	39.001175387049	70
11	17302	39.303512833616	40
11	17430	39.605156833616	34
11	17554	39.623933381816	34
11	17682	39.639440930016	44
11	17873	40.000273390688	70
11	18094	41.001229394368	70
11	18977	47.310066267179	34
11	19156	47.327987734211	34
11	19327	47.354420201243	44
11	19564	48.210066285826	34
11	19698	48.22481993789	34
11	19856	48.242009415986	44
11	20127	49.000273414865	70
11	20355	50.003240416715	70
11	20436	50.210201293221	40
11	20573	50.510066293221	34
11	20740	50.522673460401	34
11	20881	50.541304960709	44
11	21073	51.000273418576	70
11	21267	51.81091529879	34
11	21411	51.825803810246	34
11	21570	51.849187158854	44
11	21751	52.000273420439	70
11	21892	52.410201300653	40
11	22033	52.712028300653	34
11	22135	52.723596141531	34
11	22319	52.745162505043	44
11	22468	53.000273422306	70
11	22680	54.001157424176	70
11	22783	54.210201308121	40
11	22908	54.513711308121	34
11	23031	54.534961853183	34
11	23180	54.562610701537	44
11	23354	55.000273426053	70
11	23557	56.010201315625	40
11	23675	56.310066315625	34
11	23805	56.333478027361	34
11	23975	56.354971594965	44
11	24222	57.310618319392	34
11	24374	57.330421898312	34
11	24510	57.347985617592	44
11	25235	62.431309972528	40
11	25352	62.732077972528	34
11	25462	62.74384126132	34
11	25637	62.772163838904	44
11	25783	63.000273660198	70
11	25963	63.810201782034	40
11	26081	64.110066797918	34
11	26241	64.133684206574	34
11	26367	64.148102263066	44
11	26663	65.312178829765	34
11	26800	65.330204982035	34
11	26914	65.346893366125	44
11	27154	66.001807708086	70
11	27338	67.001229724206	70
11	27481	67.610201910052	40
11	27591	67.910066910052	34
11	27745	67.926343255294	34
11	27881	67.947739152122	44
11	28060	68.002410740401	70
11	28270	69.00862475667	70
11	28561	70.47605099133	34
11	28650	70.484664537366	34
11	28806	70.513700629438	44
11	28951	71.000869789433	70
11	29049	71.21020202409	40
11	29170	71.51101502409	34
11	29288	71.526063602958	34
11	29442	71.549178760694	44
11	29633	72.000833805919	70
11	29828	73.000273822477	70
11	30018	74.000273839101	70
11	30380	75.676321156532	34
11	30453	75.694864868118	34
11	30607	75.72081929129	44
11	31380	81.349200681202	34
11	32111	86.749200767429	34
11	32243	86.766951941501	34
11	32411	86.795062028537	44
11	32538	87.000274060931	70
11	32740	87.798354132986	34
11	32856	87.82509337671	34
11	32990	87.843940498572	44
11	33325	88.642997881624	34
11	33391	88.655275038418	34
11	33541	88.672247195212	44
11	33898	89.816524690942	34
11	34014	89.831955920246	34
11	34134	89.84578314955	44
11	34311	90.017899632398	70
11	34375	90.299445396606	40
11	34483	90.599310396606	34
11	34611	90.626123661414	34
11	34745	90.64875619103	44
11	34915	91.001754650182	70
11	34994	91.104737473618	40
11	35126	91.415102473618	34
11	35179	91.418725773986	34
11	35915	96.754737562933	40
11	36066	97.063623976522	34
11	45133	163.454740481193	40
12	15	0.059312461638	78
12	27	0.159312461638	78
12	43	0.259312461638	78
12	65	0.359312461638	78
12	78	0.459312461638	78
12	90	0.559312461638	78
12	114	0.564901300615	14
12	122	0.565177300615	34
12	135	0.565669800463	14
12	149	0.566512800463	34
12	158	0.567343800463	34
12	170	0.568043300311	14
12	179	0.569264300311	34
12	202	0.573641300311	34
12	224	0.582824800159	34
12	261	0.588965300007	14
12	275	0.589778300007	14
12	290	0.591626799855	14
12	298	0.591974799855	34
12	310	0.592481799855	34
12	319	0.593141799855	34
12	340	0.594423299703	34
12	354	0.596082299703	34
12	369	0.599163799551	34
12	376	0.600516799551	34
12	396	0.603573299399	14
12	420	0.604700799247	14
12	441	0.607816799247	14
12	449	0.610117799247	34
12	463	0.610624799247	54
12	470	0.611515799247	54
12	477	0.612136799247	54
12	491	0.614602799247	54
12	504	0.616521299095	14
12	513	0.617967299095	54
12	520	0.620397299095	54
12	543	0.627849798943	54
12	557	0.659312461638	78
12	567	0.759312461638	78
12	579	0.859312461638	78
12	589	0.959312461638	78
12	636	1.003556250206	14
12	644	1.003832250206	70
12	666	1.015773750623	14
12	681	1.059312461638	78
12	693	1.159312461638	78
12	703	1.259312461638	78
12	713	1.359312461638	78
12	727	1.459312461638	78
12	747	1.510228962056	78
12	755	1.511154962056	78
12	769	1.512017962056	78
12	782	1.513375962056	78
12	789	1.515354962056	78
12	796	1.516010962056	78
12	809	1.524937962056	78
12	823	1.559312461638	78
12	833	1.659312461638	78
12	846	1.759312461638	78
12	868	1.810075962056	14
12	876	1.810351962056	34
12	891	1.811317962056	34
12	902	1.811774462474	14
12	916	1.812713462474	14
12	924	1.813340462474	34
12	940	1.813964462474	34
12	960	1.815184962892	14
12	968	1.817350962892	34
12	990	1.82060346331	34
12	997	1.82480946331	34
12	1017	1.827901963728	14
12	1046	1.830034963728	14
12	1054	1.830310963728	34
12	1075	1.831060963728	34
12	1089	1.832440963728	34
12	1099	1.833469963728	34
12	1110	1.835182963728	34
12	1124	1.835923963728	34
12	1138	1.838239963728	34
12	1180	1.851667464146	14
12	1188	1.851943464146	54
12	1205	1.852636464146	54
12	1219	1.853671464146	54
12	1233	1.855858464146	54
12	1249	1.859755464146	54
12	1264	1.862239964564	54
12	1284	1.863122464982	14
12	1292	1.863731464982	54
12	1299	1.864253464982	78
12	1316	1.8699289654	14
12	1325	1.959312461638	78
12	1374	2.004636250543	14
12	1381	2.004912250543	70
12	1414	2.059312461638	78
12	1424	2.159312461638	78
12	1436	2.259312461638	78
12	1446	2.359312461638	78
12	1458	2.459312461638	78
12	1468	2.559312461638	78
12	1478	2.659312461638	78
12	1492	2.759312461638	78
12	1514	2.859312461638	78
12	1524	2.959312461638	78
12	1543	3.059312461638	78
12	1572	3.111104963119	14
12	1579	3.111380963119	34
12	1592	3.111971963119	14
12	1600	3.112373963119	34
12	1612	3.112892963119	14
12	1620	3.113582963119	34
12	1639	3.114665963119	34
12	1656	3.115877464989	14
12	1665	3.118313464989	34
12	1686	3.124609966859	14
12	1703	3.125117468729	14
12	1718	3.125849970599	14
12	1734	3.128321970599	34
12	1754	3.129407472469	14
12	1768	3.132470472469	14
12	1784	3.136445472469	34
12	1791	3.136952472469	34
12	1812	3.137828974339	34
12	1825	3.139198974339	14
12	1838	3.139906974339	34
12	1855	3.140676974339	14
12	1869	3.142234974339	14
12	1878	3.143041974339	34
12	1900	3.144494476209	34
12	1921	3.145316978079	14
12	1936	3.151276479949	14
12	1944	3.151651479949	34
12	1965	3.157648981819	14
12	1974	3.160840981819	34
12	1988	3.161347981819	54
12	2003	3.162022981819	54
12	2010	3.163102981819	54
12	2024	3.164183483689	54
12	2031	3.169286483689	54
12	2044	3.175442483689	54
12	2057	3.183605483689	54
12	2071	3.184127985559	78
12	2081	3.259312461638	78
12	2093	3.359312461638	78
12	2103	3.459312461638	78
12	2115	3.559312461638	78
12	2125	3.659312461638	78
12	2137	3.759312461638	78
12	2149	3.859312461638	78
12	2159	3.959312461638	78
12	2187	4.000283251376	14
12	2195	4.000559251376	70
12	2247	4.023439754123	14
12	2256	4.059312461638	78
12	2268	4.159312461638	78
12	2278	4.259312461638	78
12	2290	4.359312461638	78
12	2302	4.459312461638	78
12	2312	4.559312461638	78
12	2324	4.659312461638	78
12	2336	4.759312461638	78
12	2348	4.859312461638	78
12	2358	4.959312461638	78
12	2384	5.000283251868	14
12	2392	5.000559251868	70
12	2409	5.001622755604	14
12	2422	5.002956755603	14
12	2436	5.004300259339	14
12	2450	5.007839763075	14
12	2464	5.016896266811	14
12	2477	5.02282926681	14
12	2486	5.059312461638	78
12	2500	5.159312461638	78
12	2520	5.259312461638	78
12	2532	5.359312461638	78
12	2543	5.459312461638	78
12	2565	5.510075964882	14
12	2572	5.510351964882	34
12	2590	5.510868468618	34
12	2604	5.511384468618	34
12	2618	5.512251468618	34
12	2639	5.514108468618	34
12	2659	5.515673972354	14
12	2674	5.51944847609	14
12	2688	5.52289847609	14
12	2704	5.52340547609	14
12	2718	5.52415547609	14
12	2727	5.52478247609	34
12	2747	5.526020979826	14
12	2761	5.528021979826	14
12	2777	5.531420979826	34
12	2787	5.531927979826	34
12	2798	5.532587979826	34
12	2819	5.533770483562	34
12	2831	5.535888483562	34
12	2853	5.536629987298	14
12	2868	5.537207491034	14
12	2884	5.539580491034	34
12	2905	5.547260491034	34
12	2919	5.556479491034	34
12	2926	5.556986491034	54
12	2943	5.55793199477	54
12	2959	5.55936299477	54
12	2972	5.560245498506	14
12	2980	5.561115498506	54
12	2993	5.563419498506	54
12	3007	5.565265002242	54
12	3021	5.568820505978	54
12	3034	5.569342505978	78
12	3044	5.659312461638	78
12	3054	5.759312461638	78
12	3066	5.859312461638	78
12	3076	5.959312461638	78
12	3116	6.00273525241	14
12	3123	6.00301125241	70
12	3138	6.005554252409	14
12	3158	6.016457252407	14
12	3173	6.059312461638	78
12	3187	6.159312461638	78
12	3207	6.210228965918	78
12	3215	6.211037965918	78
12	3230	6.212504470741	78
12	3237	6.214834470741	78
12	3251	6.218676975564	78
12	3264	6.226541975564	78
12	3271	6.232975975564	78
12	3285	6.259312461638	78
12	3295	6.359312461638	78
12	3308	6.459312461638	78
12	3339	6.511122965918	14
12	3347	6.511398965918	34
12	3355	6.511968965918	34
12	3377	6.512721470742	14
12	3386	6.513150470742	34
12	3393	6.514701470742	34
12	3414	6.515489975566	14
12	3429	6.51658248039	14
12	3437	6.52080048039	34
12	3450	6.52429848039	14
12	3458	6.52518648039	34
12	3473	6.530850985214	34
12	3494	6.534320985214	14
12	3501	6.534596985214	34
12	3523	6.535257490038	34
12	3544	6.536369994862	14
12	3552	6.536762994862	34
12	3564	6.537407994862	14
12	3578	6.538382994862	14
12	3586	6.539405994862	34
12	3599	6.541229994862	14
12	3608	6.543917994862	34
12	3628	6.547496499686	14
12	3636	6.548672499686	34
12	3679	6.553470499686	14
12	3694	6.555384499686	34
12	3709	6.55589200451	54
12	3716	6.55665700451	54
12	3733	6.557323509334	54
12	3747	6.557881509334	54
12	3763	6.561985509334	54
12	3778	6.564335014158	54
12	3793	6.566027518982	54
12	3808	6.566550023806	78
12	3825	6.57122652863	14
12	3834	6.659312461638	78
12	3846	6.759312461638	78
12	3856	6.859312461638	78
12	3866	6.959312461638	78
12	3894	7.000283253008	14
12	3902	7.000559253008	70
12	3926	7.002515759023	14
12	3939	7.005190759022	14
12	3966	7.012216759019	14
12	3974	7.059312461638	78
12	3986	7.159312461638	78
12	3998	7.259312461638	78
12	4008	7.359312461638	78
12	4018	7.459312461638	78
12	4032	7.559312461638	78
12	4052	7.610228967654	78
12	4060	7.611172967654	78
12	4075	7.612513473669	78
12	4089	7.613286979684	78
12	4102	7.615994979684	78
12	4115	7.625416979684	78
12	4129	7.629169485699	78
12	4137	7.659312461638	78
12	4147	7.759312461638	78
12	4158	7.859312461638	78
12	4194	7.912709967654	14
12	4202	7.912985967654	34
12	4219	7.913906967654	34
12	4233	7.914818967654	34
12	4246	7.91559547367	14
12	4254	7.91733847367	34
12	4274	7.920763979686	14
12	4282	7.922614979686	34
12	4297	7.927262485702	34
12	4310	7.930567485702	14
12	4334	7.932400991718	14
12	4355	7.934296991718	14
12	4369	7.935370991718	14
12	4377	7.936735991718	34
12	4392	7.937243497734	34
12	4419	7.93800500375	14
12	4428	7.93847000375	34
12	4443	7.940093509766	34
12	4450	7.940735509766	34
12	4470	7.943270015782	14
12	4479	7.944050015782	34
12	4503	7.951793015782	34
12	4529	7.953337521798	14
12	4543	7.955336521798	14
12	4557	7.958037521798	14
12	4566	7.962984521798	34
12	4574	7.963491521798	54
12	4591	7.964095027814	54
12	4598	7.964959027814	54
12	4611	7.966219027814	14
12	4620	7.966810027814	54
12	4627	7.969420027814	54
12	4639	7.96992853383	14
12	4646	7.97609953383	54
12	4659	7.98379453383	54
12	4666	7.98431653383	78
12	4692	8.000283253655	14
12	4700	8.000559253655	70
12	4729	8.003358760963	14
12	4749	8.012497760961	14
12	4765	8.059312461638	78
12	4777	8.159312461638	78
12	4789	8.259312461638	78
12	4799	8.359312461638	78
12	4809	8.459312461638	78
12	4821	8.559312461638	78
12	4831	8.659312461638	78
12	4841	8.759312461638	78
12	4853	8.859312461638	78
12	4863	8.959312461638	78
12	4896	9.001239254353	14
12	4903	9.001515254353	70
12	4925	9.002557254351	14
12	4939	9.005547763059	14
12	4961	9.059312461638	78
12	4975	9.159312461638	78
12	4997	9.259312461638	78
12	5007	9.359312461638	78
12	5020	9.459312461638	78
12	5051	9.510663969647	14
12	5059	9.510939969647	34
12	5076	9.511608969647	34
12	5088	9.513024969647	34
12	5104	9.514045478355	34
12	5124	9.514914987063	14
12	5138	9.518130987063	14
12	5146	9.520152987063	34
12	5159	9.523857987063	14
12	5187	9.526896987063	34
12	5203	9.527560495771	14
12	5218	9.528887004479	14
12	5232	9.532544004479	14
12	5248	9.535052004479	34
12	5255	9.535559004479	34
12	5262	9.536480004479	34
12	5282	9.537536004479	34
12	5297	9.538511513187	34
12	5311	9.539306513187	34
12	5331	9.541733021895	14
12	5347	9.542247021895	14
12	5362	9.542878530603	14
12	5377	9.544338039311	14
12	5391	9.544969039311	14
12	5407	9.550069039311	34
12	5414	9.553708039311	34
12	5426	9.554349548019	14
12	5434	9.554625548019	54
12	5442	9.555642548019	54
12	5458	9.557082548019	54
12	5473	9.559261056727	54
12	5488	9.563959056727	54
12	5501	9.571294056727	54
12	5514	9.571933056727	54
12	5528	9.572455565435	78
12	5538	9.659312461638	78
12	5548	9.759312461638	78
12	5560	9.859312461638	78
12	5570	9.959312461638	78
12	5617	10.003691255101	14
12	5625	10.003967255101	70
12	5647	10.014000765308	14
12	5662	10.059312461638	78
12	5676	10.159312461638	78
12	5698	10.259312461638	78
12	5710	10.359312461638	78
12	5721	10.459312461638	78
12	5745	10.510075971096	14
12	5753	10.510351971096	34
12	5766	10.510970481304	14
12	5775	10.511282481304	34
12	5792	10.511879991512	34
12	5819	10.514101991512	14
12	5828	10.514764991512	34
12	5843	10.51727050172	34
12	5856	10.52219550172	14
12	5865	10.52649450172	34
12	5882	10.52838750172	34
12	5900	10.529005011928	14
12	5907	10.529281011928	34
12	5922	10.529932011928	34
12	5932	10.530871011928	34
12	5943	10.532503011928	34
12	5971	10.535089522136	34
12	5984	10.537965522136	14
12	5993	10.541175522136	34
12	6020	10.548186032344	14
12	6036	10.548700032344	14
12	6050	10.549304032344	14
12	6063	10.550759032344	34
12	6078	10.551266032344	54
12	6094	10.552337032344	54
12	6108	10.553570032344	54
12	6121	10.554668542552	14
12	6129	10.556024542552	54
12	6152	10.559372542552	54
12	6172	10.56607105276	14
12	6180	10.56888505276	54
12	6187	10.57588705276	54
12	6194	10.57640905276	78
12	6206	10.659312461638	78
12	6216	10.759312461638	78
12	6228	10.859312461638	78
12	6238	10.959312461638	78
12	6278	11.001871255904	14
12	6286	11.002147255904	70
12	6317	11.009235767714	14
12	6331	11.014332279526	14
12	6340	11.059312461638	78
12	6352	11.159312461638	78
12	6364	11.259312461638	78
12	6374	11.359312461638	78
12	6384	11.459312461638	78
12	6396	11.559312461638	78
12	6406	11.659312461638	78
12	6416	11.759312461638	78
12	6428	11.859312461638	78
12	6440	11.959312461638	78
12	6480	12.002627256757	14
12	6488	12.002903256757	70
12	6512	12.009467770274	14
12	6526	12.016436283792	14
12	6542	12.059312461638	78
12	6552	12.159312461638	78
12	6566	12.259312461638	78
12	6588	12.359312461638	78
12	6600	12.459312461638	78
12	6611	12.559312461638	78
12	6663	12.614839974303	14
12	6671	12.615115974303	34
12	6688	12.615982974303	34
12	6695	12.616813974303	34
12	6702	12.618976974303	34
12	6717	12.619817487821	34
12	6731	12.624455487821	34
12	6745	12.630569487821	34
12	6766	12.632006001339	14
12	6774	12.632282001339	34
12	6801	12.633349514857	14
12	6809	12.633814514857	34
12	6827	12.635321028375	34
12	6845	12.637718028375	34
12	6857	12.641132028375	34
12	6879	12.648857028375	34
12	6886	12.652559028375	34
12	6929	12.659312461638	78
12	6944	12.660173541893	14
12	6953	12.660620541893	54
12	6970	12.661224055411	54
12	6989	12.662529055411	54
12	6998	12.663267055411	54
12	7005	12.664176055411	54
12	7027	12.672618568929	54
12	7040	12.680475568929	54
12	7055	12.759312461638	78
12	7065	12.859312461638	78
12	7077	12.959312461638	78
12	7124	13.004195257661	14
12	7131	13.004471257661	70
12	7162	13.017976772987	14
12	7170	13.059312461638	78
12	7180	13.159312461638	78
12	7194	13.259312461638	78
12	7214	13.359312461638	78
12	7226	13.459312461638	78
12	7237	13.559312461638	78
12	7280	13.612829976061	14
12	7287	13.613105976061	34
12	7305	13.613703491389	34
12	7319	13.614849491389	34
12	7334	13.615519006717	34
12	7347	13.616808006717	14
12	7355	13.617111006717	34
12	7377	13.623846522045	34
12	7384	13.624974522045	34
12	7433	13.628826037373	14
12	7440	13.629102037373	34
12	7448	13.629681037373	34
12	7468	13.631268037373	34
12	7482	13.632171037373	34
12	7496	13.633596037373	34
12	7517	13.642698037373	34
12	7530	13.644116552701	14
12	7547	13.644631068029	14
12	7568	13.646064068029	14
12	7582	13.647478068029	14
12	7591	13.649077068029	34
12	7606	13.649584583357	54
12	7623	13.650422098685	54
12	7637	13.651115098685	54
12	7657	13.653221614013	14
12	7666	13.653605614013	54
12	7680	13.657448614013	54
12	7710	13.659412129341	14
12	7718	13.662703129341	54
12	7732	13.669939644669	54
12	7745	13.670461644669	78
12	7755	13.759312461638	78
12	7767	13.859312461638	78
12	7777	13.959312461638	78
12	7803	14.000283258619	14
12	7811	14.000559258619	70
12	7833	14.002339775856	14
12	7847	14.003134293094	14
12	7860	14.007501293093	14
12	7873	14.011481293092	14
12	7886	14.019412293091	14
12	7894	14.059312461638	78
12	7906	14.159312461638	78
12	7918	14.259312461638	78
12	7928	14.359312461638	78
12	7940	14.459312461638	78
12	7950	14.559312461638	78
12	7962	14.659312461638	78
12	7974	14.759312461638	78
12	7984	14.859312461638	78
12	7996	14.959312461638	78
12	8029	15.001383259625	14
12	8037	15.001659259625	70
12	8084	15.059312461638	78
12	8096	15.159312461638	78
12	8108	15.259312461638	78
12	8120	15.359312461638	78
12	8130	15.459312461638	78
12	8142	15.559312461638	78
12	8152	15.659312461638	78
12	8164	15.759312461638	78
12	8176	15.859312461638	78
12	8186	15.959312461638	78
12	8212	16.000283260685	14
12	8219	16.000559260685	70
12	8269	16.016540260679	14
12	8278	16.059312461638	78
12	8292	16.159312461638	78
12	8314	16.259312461638	78
12	8326	16.359312461638	78
12	8339	16.459312461638	78
12	8377	16.512493981949	14
12	8384	16.512769981949	34
12	8392	16.513285981949	34
12	8408	16.514035981949	34
12	8421	16.515397503319	14
12	8429	16.516546503319	34
12	8449	16.518580503319	14
12	8464	16.520123024689	14
12	8487	16.522109024689	34
12	8515	16.530536024689	34
12	8522	16.534841024689	34
12	8550	16.559312461638	78
12	8560	16.659312461638	78
12	8570	16.759312461638	78
12	8582	16.859312461638	78
12	8594	16.959312461638	78
12	8610	17.059312461638	78
12	8620	17.159312461638	78
12	8632	17.259312461638	78
12	8642	17.359312461638	78
12	8654	17.459312461638	78
12	8664	17.559312461638	78
12	8674	17.659312461638	78
12	8686	17.759312461638	78
12	8696	17.859312461638	78
12	8706	17.959312461638	78
12	8724	18.059312461638	78
12	8734	18.159312461638	78
12	8746	18.259312461638	78
12	8758	18.359312461638	78
12	8768	18.459312461638	78
12	8778	18.559312461638	78
12	8790	18.659312461638	78
12	8800	18.759312461638	78
12	8812	18.859312461638	78
12	8822	18.959312461638	78
12	8838	19.059312461638	78
12	8850	19.159312461638	78
12	8860	19.259312461638	78
12	8872	19.359312461638	78
12	8882	19.459312461638	78
12	8892	19.559312461638	78
12	8902	19.659312461638	78
12	8914	19.759312461638	78
12	8924	19.859312461638	78
12	8936	19.959312461638	78
12	8954	20.059312461638	78
12	8964	20.159312461638	78
12	8976	20.259312461638	78
12	8986	20.359312461638	78
12	8998	20.459312461638	78
12	9008	20.559312461638	78
12	9018	20.659312461638	78
12	9028	20.759312461638	78
12	9040	20.859312461638	78
12	9052	20.959312461638	78
12	9070	21.059312461638	78
12	9080	21.159312461638	78
12	9092	21.259312461638	78
12	9102	21.359312461638	78
12	9112	21.459312461638	78
12	9129	21.559312461638	78
12	9151	21.610228988004	78
12	9159	21.611118988004	78
12	9166	21.612125988004	78
12	9173	21.614077988004	78
12	9180	21.618369988004	78
12	9187	21.620681988004	78
12	9194	21.625702988004	78
12	9202	21.659312461638	78
12	9212	21.759312461638	78
12	9225	21.859312461638	78
12	9289	21.927931988004	14
12	9297	21.928207988004	34
12	9319	21.929048521484	34
12	9343	21.930334521484	14
12	9351	21.930925521484	34
12	9372	21.931930054964	14
12	9381	21.933385054964	34
12	9402	21.934308588444	14
12	9410	21.937851588444	34
12	9431	21.941673121924	14
12	9440	21.942300121924	34
12	9461	21.947165655404	14
12	9468	21.952238655404	34