file 71805311 1384709678                                        
version 2
run General-0-20131117-17:33:04-35586
attr configname General
attr datetime 20131117-17:33:04
attr experiment General
attr inifile omnetpp.ini
attr iterationvars ""
attr iterationvars2 $repetition=0
attr measurement ""
attr network LothianBusNet
attr processid 35586
attr repetition 0
attr replication #0
attr resultdir results
attr runnumber 0
attr seedset 0

vector 3  LothianBusNet.ap[0].wlan[0].mgmt  dataQueueLen:vector  ETV
attr interpolationmode  sample-hold
attr title  "data queue length, vector"
vector 91  LothianBusNet.bus[0].wlan.mgmt  dataQueueLen:vector  ETV
attr interpolationmode  sample-hold
attr title  "data queue length, vector"
vector 113  LothianBusNet.bus[1].wlan.mgmt  dataQueueLen:vector  ETV
attr interpolationmode  sample-hold
attr title  "data queue length, vector"
vector 135  LothianBusNet.bus[2].wlan.mgmt  dataQueueLen:vector  ETV
attr interpolationmode  sample-hold
attr title  "data queue length, vector"
vector 157  LothianBusNet.bus[3].wlan.mgmt  dataQueueLen:vector  ETV
attr interpolationmode  sample-hold
attr title  "data queue length, vector"
vector 179  LothianBusNet.bus[4].wlan.mgmt  dataQueueLen:vector  ETV
attr interpolationmode  sample-hold
attr title  "data queue length, vector"
vector 201  LothianBusNet.bus[5].wlan.mgmt  dataQueueLen:vector  ETV
attr interpolationmode  sample-hold
attr title  "data queue length, vector"
vector 223  LothianBusNet.bus[6].wlan.mgmt  dataQueueLen:vector  ETV
attr interpolationmode  sample-hold
attr title  "data queue length, vector"
vector 245  LothianBusNet.bus[7].wlan.mgmt  dataQueueLen:vector  ETV
attr interpolationmode  sample-hold
attr title  "data queue length, vector"
vector 267  LothianBusNet.bus[8].wlan.mgmt  dataQueueLen:vector  ETV
attr interpolationmode  sample-hold
attr title  "data queue length, vector"
vector 289  LothianBusNet.bus[9].wlan.mgmt  dataQueueLen:vector  ETV
attr interpolationmode  sample-hold
attr title  "data queue length, vector"
vector 311  LothianBusNet.bus[10].wlan.mgmt  dataQueueLen:vector  ETV
attr interpolationmode  sample-hold
attr title  "data queue length, vector"
vector 333  LothianBusNet.bus[11].wlan.mgmt  dataQueueLen:vector  ETV
attr interpolationmode  sample-hold
attr title  "data queue length, vector"
vector 355  LothianBusNet.bus[12].wlan.mgmt  dataQueueLen:vector  ETV
attr interpolationmode  sample-hold
attr title  "data queue length, vector"
vector 377  LothianBusNet.bus[13].wlan.mgmt  dataQueueLen:vector  ETV
attr interpolationmode  sample-hold
attr title  "data queue length, vector"
vector 399  LothianBusNet.bus[14].wlan.mgmt  dataQueueLen:vector  ETV
attr interpolationmode  sample-hold
attr title  "data queue length, vector"
vector 421  LothianBusNet.bus[15].wlan.mgmt  dataQueueLen:vector  ETV
attr interpolationmode  sample-hold
attr title  "data queue length, vector"
vector 443  LothianBusNet.bus[16].wlan.mgmt  dataQueueLen:vector  ETV
attr interpolationmode  sample-hold
attr title  "data queue length, vector"
vector 465  LothianBusNet.bus[17].wlan.mgmt  dataQueueLen:vector  ETV
attr interpolationmode  sample-hold
attr title  "data queue length, vector"
vector 487  LothianBusNet.bus[18].wlan.mgmt  dataQueueLen:vector  ETV
attr interpolationmode  sample-hold
attr title  "data queue length, vector"
vector 509  LothianBusNet.bus[19].wlan.mgmt  dataQueueLen:vector  ETV
attr interpolationmode  sample-hold
attr title  "data queue length, vector"
vector 531  LothianBusNet.bus[20].wlan.mgmt  dataQueueLen:vector  ETV
attr interpolationmode  sample-hold
attr title  "data queue length, vector"
vector 553  LothianBusNet.bus[21].wlan.mgmt  dataQueueLen:vector  ETV
attr interpolationmode  sample-hold
attr title  "data queue length, vector"
vector 575  LothianBusNet.bus[22].wlan.mgmt  dataQueueLen:vector  ETV
attr interpolationmode  sample-hold
attr title  "data queue length, vector"
vector 597  LothianBusNet.bus[23].wlan.mgmt  dataQueueLen:vector  ETV
attr interpolationmode  sample-hold
attr title  "data queue length, vector"
vector 619  LothianBusNet.bus[24].wlan.mgmt  dataQueueLen:vector  ETV
attr interpolationmode  sample-hold
attr title  "data queue length, vector"
vector 641  LothianBusNet.bus[25].wlan.mgmt  dataQueueLen:vector  ETV
attr interpolationmode  sample-hold
attr title  "data queue length, vector"
vector 663  LothianBusNet.bus[26].wlan.mgmt  dataQueueLen:vector  ETV
attr interpolationmode  sample-hold
attr title  "data queue length, vector"
vector 685  LothianBusNet.bus[27].wlan.mgmt  dataQueueLen:vector  ETV
attr interpolationmode  sample-hold
attr title  "data queue length, vector"
vector 707  LothianBusNet.bus[28].wlan.mgmt  dataQueueLen:vector  ETV
attr interpolationmode  sample-hold
attr title  "data queue length, vector"
vector 729  LothianBusNet.bus[29].wlan.mgmt  dataQueueLen:vector  ETV
attr interpolationmode  sample-hold
attr title  "data queue length, vector"
vector 751  LothianBusNet.bus[30].wlan.mgmt  dataQueueLen:vector  ETV
attr interpolationmode  sample-hold
attr title  "data queue length, vector"
vector 773  LothianBusNet.bus[31].wlan.mgmt  dataQueueLen:vector  ETV
attr interpolationmode  sample-hold
attr title  "data queue length, vector"
vector 795  LothianBusNet.bus[32].wlan.mgmt  dataQueueLen:vector  ETV
attr interpolationmode  sample-hold
attr title  "data queue length, vector"
vector 817  LothianBusNet.bus[33].wlan.mgmt  dataQueueLen:vector  ETV
attr interpolationmode  sample-hold
attr title  "data queue length, vector"
vector 839  LothianBusNet.bus[34].wlan.mgmt  dataQueueLen:vector  ETV
attr interpolationmode  sample-hold
attr title  "data queue length, vector"
vector 861  LothianBusNet.bus[35].wlan.mgmt  dataQueueLen:vector  ETV
attr interpolationmode  sample-hold
attr title  "data queue length, vector"
vector 883  LothianBusNet.bus[36].wlan.mgmt  dataQueueLen:vector  ETV
attr interpolationmode  sample-hold
attr title  "data queue length, vector"
vector 905  LothianBusNet.bus[37].wlan.mgmt  dataQueueLen:vector  ETV
attr interpolationmode  sample-hold
attr title  "data queue length, vector"
vector 927  LothianBusNet.bus[38].wlan.mgmt  dataQueueLen:vector  ETV
attr interpolationmode  sample-hold
attr title  "data queue length, vector"
vector 949  LothianBusNet.bus[39].wlan.mgmt  dataQueueLen:vector  ETV
attr interpolationmode  sample-hold
attr title  "data queue length, vector"
vector 971  LothianBusNet.bus[40].wlan.mgmt  dataQueueLen:vector  ETV
attr interpolationmode  sample-hold
attr title  "data queue length, vector"
vector 993  LothianBusNet.bus[41].wlan.mgmt  dataQueueLen:vector  ETV
attr interpolationmode  sample-hold
attr title  "data queue length, vector"
vector 1015  LothianBusNet.bus[42].wlan.mgmt  dataQueueLen:vector  ETV
attr interpolationmode  sample-hold
attr title  "data queue length, vector"
vector 1037  LothianBusNet.bus[43].wlan.mgmt  dataQueueLen:vector  ETV
attr interpolationmode  sample-hold
attr title  "data queue length, vector"
vector 1059  LothianBusNet.bus[44].wlan.mgmt  dataQueueLen:vector  ETV
attr interpolationmode  sample-hold
attr title  "data queue length, vector"
vector 1081  LothianBusNet.bus[45].wlan.mgmt  dataQueueLen:vector  ETV
attr interpolationmode  sample-hold
attr title  "data queue length, vector"
vector 1103  LothianBusNet.bus[46].wlan.mgmt  dataQueueLen:vector  ETV
attr interpolationmode  sample-hold
attr title  "data queue length, vector"
vector 1125  LothianBusNet.bus[47].wlan.mgmt  dataQueueLen:vector  ETV
attr interpolationmode  sample-hold
attr title  "data queue length, vector"
vector 1147  LothianBusNet.bus[48].wlan.mgmt  dataQueueLen:vector  ETV
attr interpolationmode  sample-hold
attr title  "data queue length, vector"
vector 1169  LothianBusNet.bus[49].wlan.mgmt  dataQueueLen:vector  ETV
attr interpolationmode  sample-hold
attr title  "data queue length, vector"
vector 1191  LothianBusNet.bus[50].wlan.mgmt  dataQueueLen:vector  ETV
attr interpolationmode  sample-hold
attr title  "data queue length, vector"
vector 1213  LothianBusNet.bus[51].wlan.mgmt  dataQueueLen:vector  ETV
attr interpolationmode  sample-hold
attr title  "data queue length, vector"
vector 1235  LothianBusNet.bus[52].wlan.mgmt  dataQueueLen:vector  ETV
attr interpolationmode  sample-hold
attr title  "data queue length, vector"
vector 1257  LothianBusNet.bus[53].wlan.mgmt  dataQueueLen:vector  ETV
attr interpolationmode  sample-hold
attr title  "data queue length, vector"
vector 1279  LothianBusNet.bus[54].wlan.mgmt  dataQueueLen:vector  ETV
attr interpolationmode  sample-hold
attr title  "data queue length, vector"
vector 1301  LothianBusNet.bus[55].wlan.mgmt  dataQueueLen:vector  ETV
attr interpolationmode  sample-hold
attr title  "data queue length, vector"
vector 1323  LothianBusNet.bus[56].wlan.mgmt  dataQueueLen:vector  ETV
attr interpolationmode  sample-hold
attr title  "data queue length, vector"
vector 1345  LothianBusNet.bus[57].wlan.mgmt  dataQueueLen:vector  ETV
attr interpolationmode  sample-hold
attr title  "data queue length, vector"
vector 1367  LothianBusNet.bus[58].wlan.mgmt  dataQueueLen:vector  ETV
attr interpolationmode  sample-hold
attr title  "data queue length, vector"
vector 1389  LothianBusNet.bus[59].wlan.mgmt  dataQueueLen:vector  ETV
attr interpolationmode  sample-hold
attr title  "data queue length, vector"
vector 1411  LothianBusNet.bus[60].wlan.mgmt  dataQueueLen:vector  ETV
attr interpolationmode  sample-hold
attr title  "data queue length, vector"
vector 1433  LothianBusNet.bus[61].wlan.mgmt  dataQueueLen:vector  ETV
attr interpolationmode  sample-hold
attr title  "data queue length, vector"
vector 1455  LothianBusNet.bus[62].wlan.mgmt  dataQueueLen:vector  ETV
attr interpolationmode  sample-hold
attr title  "data queue length, vector"
vector 1477  LothianBusNet.bus[63].wlan.mgmt  dataQueueLen:vector  ETV
attr interpolationmode  sample-hold
attr title  "data queue length, vector"
vector 1499  LothianBusNet.bus[64].wlan.mgmt  dataQueueLen:vector  ETV
attr interpolationmode  sample-hold
attr title  "data queue length, vector"
vector 1521  LothianBusNet.bus[65].wlan.mgmt  dataQueueLen:vector  ETV
attr interpolationmode  sample-hold
attr title  "data queue length, vector"
vector 1543  LothianBusNet.bus[66].wlan.mgmt  dataQueueLen:vector  ETV
attr interpolationmode  sample-hold
attr title  "data queue length, vector"
vector 1565  LothianBusNet.bus[67].wlan.mgmt  dataQueueLen:vector  ETV
attr interpolationmode  sample-hold
attr title  "data queue length, vector"
vector 1587  LothianBusNet.bus[68].wlan.mgmt  dataQueueLen:vector  ETV
attr interpolationmode  sample-hold
attr title  "data queue length, vector"
vector 1609  LothianBusNet.bus[69].wlan.mgmt  dataQueueLen:vector  ETV
attr interpolationmode  sample-hold
attr title  "data queue length, vector"
vector 1631  LothianBusNet.bus[70].wlan.mgmt  dataQueueLen:vector  ETV
attr interpolationmode  sample-hold
attr title  "data queue length, vector"
vector 1653  LothianBusNet.bus[71].wlan.mgmt  dataQueueLen:vector  ETV
attr interpolationmode  sample-hold
attr title  "data queue length, vector"
vector 1675  LothianBusNet.bus[72].wlan.mgmt  dataQueueLen:vector  ETV
attr interpolationmode  sample-hold
attr title  "data queue length, vector"
vector 1697  LothianBusNet.bus[73].wlan.mgmt  dataQueueLen:vector  ETV
attr interpolationmode  sample-hold
attr title  "data queue length, vector"
vector 1719  LothianBusNet.bus[74].wlan.mgmt  dataQueueLen:vector  ETV
attr interpolationmode  sample-hold
attr title  "data queue length, vector"
vector 1741  LothianBusNet.bus[75].wlan.mgmt  dataQueueLen:vector  ETV
attr interpolationmode  sample-hold
attr title  "data queue length, vector"
vector 1763  LothianBusNet.bus[76].wlan.mgmt  dataQueueLen:vector  ETV
attr interpolationmode  sample-hold
attr title  "data queue length, vector"
vector 1785  LothianBusNet.bus[77].wlan.mgmt  dataQueueLen:vector  ETV
attr interpolationmode  sample-hold
attr title  "data queue length, vector"
vector 1807  LothianBusNet.bus[78].wlan.mgmt  dataQueueLen:vector  ETV
attr interpolationmode  sample-hold
attr title  "data queue length, vector"
vector 1829  LothianBusNet.bus[79].wlan.mgmt  dataQueueLen:vector  ETV
attr interpolationmode  sample-hold
attr title  "data queue length, vector"
vector 1851  LothianBusNet.bus[80].wlan.mgmt  dataQueueLen:vector  ETV
attr interpolationmode  sample-hold
attr title  "data queue length, vector"
vector 1873  LothianBusNet.bus[81].wlan.mgmt  dataQueueLen:vector  ETV
attr interpolationmode  sample-hold
attr title  "data queue length, vector"
vector 1895  LothianBusNet.bus[82].wlan.mgmt  dataQueueLen:vector  ETV
attr interpolationmode  sample-hold
attr title  "data queue length, vector"
vector 1917  LothianBusNet.bus[83].wlan.mgmt  dataQueueLen:vector  ETV
attr interpolationmode  sample-hold
attr title  "data queue length, vector"
vector 1939  LothianBusNet.bus[84].wlan.mgmt  dataQueueLen:vector  ETV
attr interpolationmode  sample-hold
attr title  "data queue length, vector"
vector 1961  LothianBusNet.bus[85].wlan.mgmt  dataQueueLen:vector  ETV
attr interpolationmode  sample-hold
attr title  "data queue length, vector"
vector 1983  LothianBusNet.bus[86].wlan.mgmt  dataQueueLen:vector  ETV
attr interpolationmode  sample-hold
attr title  "data queue length, vector"
vector 2005  LothianBusNet.bus[87].wlan.mgmt  dataQueueLen:vector  ETV
attr interpolationmode  sample-hold
attr title  "data queue length, vector"
vector 2027  LothianBusNet.bus[88].wlan.mgmt  dataQueueLen:vector  ETV
attr interpolationmode  sample-hold
attr title  "data queue length, vector"
vector 2049  LothianBusNet.bus[89].wlan.mgmt  dataQueueLen:vector  ETV
attr interpolationmode  sample-hold
attr title  "data queue length, vector"
vector 2071  LothianBusNet.bus[90].wlan.mgmt  dataQueueLen:vector  ETV
attr interpolationmode  sample-hold
attr title  "data queue length, vector"
vector 2093  LothianBusNet.bus[91].wlan.mgmt  dataQueueLen:vector  ETV
attr interpolationmode  sample-hold
attr title  "data queue length, vector"
vector 2115  LothianBusNet.bus[92].wlan.mgmt  dataQueueLen:vector  ETV
attr interpolationmode  sample-hold
attr title  "data queue length, vector"
vector 2137  LothianBusNet.bus[93].wlan.mgmt  dataQueueLen:vector  ETV
attr interpolationmode  sample-hold
attr title  "data queue length, vector"
vector 2159  LothianBusNet.bus[94].wlan.mgmt  dataQueueLen:vector  ETV
attr interpolationmode  sample-hold
attr title  "data queue length, vector"
vector 2181  LothianBusNet.bus[95].wlan.mgmt  dataQueueLen:vector  ETV
attr interpolationmode  sample-hold
attr title  "data queue length, vector"
vector 2203  LothianBusNet.bus[96].wlan.mgmt  dataQueueLen:vector  ETV
attr interpolationmode  sample-hold
attr title  "data queue length, vector"
vector 2225  LothianBusNet.bus[97].wlan.mgmt  dataQueueLen:vector  ETV
attr interpolationmode  sample-hold
attr title  "data queue length, vector"
vector 2247  LothianBusNet.bus[98].wlan.mgmt  dataQueueLen:vector  ETV
attr interpolationmode  sample-hold
attr title  "data queue length, vector"
vector 2269  LothianBusNet.bus[99].wlan.mgmt  dataQueueLen:vector  ETV
attr interpolationmode  sample-hold
attr title  "data queue length, vector"
vector 2291  LothianBusNet.bus[100].wlan.mgmt  dataQueueLen:vector  ETV
attr interpolationmode  sample-hold
attr title  "data queue length, vector"
vector 2313  LothianBusNet.bus[101].wlan.mgmt  dataQueueLen:vector  ETV
attr interpolationmode  sample-hold
attr title  "data queue length, vector"
vector 2335  LothianBusNet.bus[102].wlan.mgmt  dataQueueLen:vector  ETV
attr interpolationmode  sample-hold
attr title  "data queue length, vector"
vector 2357  LothianBusNet.bus[103].wlan.mgmt  dataQueueLen:vector  ETV
attr interpolationmode  sample-hold
attr title  "data queue length, vector"
vector 2379  LothianBusNet.bus[104].wlan.mgmt  dataQueueLen:vector  ETV
attr interpolationmode  sample-hold
attr title  "data queue length, vector"
vector 2401  LothianBusNet.bus[105].wlan.mgmt  dataQueueLen:vector  ETV
attr interpolationmode  sample-hold
attr title  "data queue length, vector"
vector 2423  LothianBusNet.bus[106].wlan.mgmt  dataQueueLen:vector  ETV
attr interpolationmode  sample-hold
attr title  "data queue length, vector"
vector 2445  LothianBusNet.bus[107].wlan.mgmt  dataQueueLen:vector  ETV
attr interpolationmode  sample-hold
attr title  "data queue length, vector"
vector 2467  LothianBusNet.bus[108].wlan.mgmt  dataQueueLen:vector  ETV
attr interpolationmode  sample-hold
attr title  "data queue length, vector"
vector 2489  LothianBusNet.bus[109].wlan.mgmt  dataQueueLen:vector  ETV
attr interpolationmode  sample-hold
attr title  "data queue length, vector"
vector 2511  LothianBusNet.bus[110].wlan.mgmt  dataQueueLen:vector  ETV
attr interpolationmode  sample-hold
attr title  "data queue length, vector"
vector 2533  LothianBusNet.bus[111].wlan.mgmt  dataQueueLen:vector  ETV
attr interpolationmode  sample-hold
attr title  "data queue length, vector"
vector 2555  LothianBusNet.bus[112].wlan.mgmt  dataQueueLen:vector  ETV
attr interpolationmode  sample-hold
attr title  "data queue length, vector"
vector 2577  LothianBusNet.bus[113].wlan.mgmt  dataQueueLen:vector  ETV
attr interpolationmode  sample-hold
attr title  "data queue length, vector"
vector 2599  LothianBusNet.bus[114].wlan.mgmt  dataQueueLen:vector  ETV
attr interpolationmode  sample-hold
attr title  "data queue length, vector"
vector 2621  LothianBusNet.bus[115].wlan.mgmt  dataQueueLen:vector  ETV
attr interpolationmode  sample-hold
attr title  "data queue length, vector"
vector 2643  LothianBusNet.bus[116].wlan.mgmt  dataQueueLen:vector  ETV
attr interpolationmode  sample-hold
attr title  "data queue length, vector"
vector 2665  LothianBusNet.bus[117].wlan.mgmt  dataQueueLen:vector  ETV
attr interpolationmode  sample-hold
attr title  "data queue length, vector"
vector 2687  LothianBusNet.bus[118].wlan.mgmt  dataQueueLen:vector  ETV
attr interpolationmode  sample-hold
attr title  "data queue length, vector"
vector 2709  LothianBusNet.bus[119].wlan.mgmt  dataQueueLen:vector  ETV
attr interpolationmode  sample-hold
attr title  "data queue length, vector"
vector 2731  LothianBusNet.bus[120].wlan.mgmt  dataQueueLen:vector  ETV
attr interpolationmode  sample-hold
attr title  "data queue length, vector"
vector 2753  LothianBusNet.bus[121].wlan.mgmt  dataQueueLen:vector  ETV
attr interpolationmode  sample-hold
attr title  "data queue length, vector"
vector 2775  LothianBusNet.bus[122].wlan.mgmt  dataQueueLen:vector  ETV
attr interpolationmode  sample-hold
attr title  "data queue length, vector"
vector 2797  LothianBusNet.bus[123].wlan.mgmt  dataQueueLen:vector  ETV
attr interpolationmode  sample-hold
attr title  "data queue length, vector"
vector 2819  LothianBusNet.bus[124].wlan.mgmt  dataQueueLen:vector  ETV
attr interpolationmode  sample-hold
attr title  "data queue length, vector"
vector 2841  LothianBusNet.bus[125].wlan.mgmt  dataQueueLen:vector  ETV
attr interpolationmode  sample-hold
attr title  "data queue length, vector"
vector 2863  LothianBusNet.bus[126].wlan.mgmt  dataQueueLen:vector  ETV
attr interpolationmode  sample-hold
attr title  "data queue length, vector"
vector 2885  LothianBusNet.bus[127].wlan.mgmt  dataQueueLen:vector  ETV
attr interpolationmode  sample-hold
attr title  "data queue length, vector"
vector 2907  LothianBusNet.bus[128].wlan.mgmt  dataQueueLen:vector  ETV
attr interpolationmode  sample-hold
attr title  "data queue length, vector"
vector 2929  LothianBusNet.bus[129].wlan.mgmt  dataQueueLen:vector  ETV
attr interpolationmode  sample-hold
attr title  "data queue length, vector"
vector 2951  LothianBusNet.bus[130].wlan.mgmt  dataQueueLen:vector  ETV
attr interpolationmode  sample-hold
attr title  "data queue length, vector"
vector 2973  LothianBusNet.bus[131].wlan.mgmt  dataQueueLen:vector  ETV
attr interpolationmode  sample-hold
attr title  "data queue length, vector"
vector 2995  LothianBusNet.bus[132].wlan.mgmt  dataQueueLen:vector  ETV
attr interpolationmode  sample-hold
attr title  "data queue length, vector"
vector 3017  LothianBusNet.bus[133].wlan.mgmt  dataQueueLen:vector  ETV
attr interpolationmode  sample-hold
attr title  "data queue length, vector"
vector 3039  LothianBusNet.bus[134].wlan.mgmt  dataQueueLen:vector  ETV
attr interpolationmode  sample-hold
attr title  "data queue length, vector"
vector 3061  LothianBusNet.bus[135].wlan.mgmt  dataQueueLen:vector  ETV
attr interpolationmode  sample-hold
attr title  "data queue length, vector"
vector 3083  LothianBusNet.bus[136].wlan.mgmt  dataQueueLen:vector  ETV
attr interpolationmode  sample-hold
attr title  "data queue length, vector"
vector 3105  LothianBusNet.bus[137].wlan.mgmt  dataQueueLen:vector  ETV
attr interpolationmode  sample-hold
attr title  "data queue length, vector"
vector 3127  LothianBusNet.bus[138].wlan.mgmt  dataQueueLen:vector  ETV
attr interpolationmode  sample-hold
attr title  "data queue length, vector"
vector 3149  LothianBusNet.bus[139].wlan.mgmt  dataQueueLen:vector  ETV
attr interpolationmode  sample-hold
attr title  "data queue length, vector"
vector 3171  LothianBusNet.bus[140].wlan.mgmt  dataQueueLen:vector  ETV
attr interpolationmode  sample-hold
attr title  "data queue length, vector"
vector 3193  LothianBusNet.bus[141].wlan.mgmt  dataQueueLen:vector  ETV
attr interpolationmode  sample-hold
attr title  "data queue length, vector"
vector 3215  LothianBusNet.bus[142].wlan.mgmt  dataQueueLen:vector  ETV
attr interpolationmode  sample-hold
attr title  "data queue length, vector"
vector 3237  LothianBusNet.bus[143].wlan.mgmt  dataQueueLen:vector  ETV
attr interpolationmode  sample-hold
attr title  "data queue length, vector"
vector 3259  LothianBusNet.bus[144].wlan.mgmt  dataQueueLen:vector  ETV
attr interpolationmode  sample-hold
attr title  "data queue length, vector"
vector 3271  LothianBusNet.ap[0].wlan[0].mac  RadioState  ETV
attr enum  "IDLE=0, OFF=4, RECV=1, SLEEP=3, TRANSMIT=2"
attr enumname  RadioState
vector 3270  LothianBusNet.ap[0].wlan[0].mac  State  ETV
attr enum  "BACKOFF=3, DEFER=1, IDLE=0, RECEIVE=8, WAITACK=4, WAITAIFS=2, WAITCTS=6, WAITMULTICAST=5, WAITSIFS=7"
attr enumname  Ieee80211Mac
vector 3277  LothianBusNet.bus[0].wlan.mac  RadioState  ETV
attr enum  "IDLE=0, OFF=4, RECV=1, SLEEP=3, TRANSMIT=2"
attr enumname  RadioState
vector 3276  LothianBusNet.bus[0].wlan.mac  State  ETV
attr enum  "BACKOFF=3, DEFER=1, IDLE=0, RECEIVE=8, WAITACK=4, WAITAIFS=2, WAITCTS=6, WAITMULTICAST=5, WAITSIFS=7"
attr enumname  Ieee80211Mac
vector 3283  LothianBusNet.bus[1].wlan.mac  RadioState  ETV
attr enum  "IDLE=0, OFF=4, RECV=1, SLEEP=3, TRANSMIT=2"
attr enumname  RadioState
vector 3282  LothianBusNet.bus[1].wlan.mac  State  ETV
attr enum  "BACKOFF=3, DEFER=1, IDLE=0, RECEIVE=8, WAITACK=4, WAITAIFS=2, WAITCTS=6, WAITMULTICAST=5, WAITSIFS=7"
attr enumname  Ieee80211Mac
vector 3289  LothianBusNet.bus[2].wlan.mac  RadioState  ETV
attr enum  "IDLE=0, OFF=4, RECV=1, SLEEP=3, TRANSMIT=2"
attr enumname  RadioState
vector 3288  LothianBusNet.bus[2].wlan.mac  State  ETV
attr enum  "BACKOFF=3, DEFER=1, IDLE=0, RECEIVE=8, WAITACK=4, WAITAIFS=2, WAITCTS=6, WAITMULTICAST=5, WAITSIFS=7"
attr enumname  Ieee80211Mac
vector 3295  LothianBusNet.bus[3].wlan.mac  RadioState  ETV
attr enum  "IDLE=0, OFF=4, RECV=1, SLEEP=3, TRANSMIT=2"
attr enumname  RadioState
vector 3294  LothianBusNet.bus[3].wlan.mac  State  ETV
attr enum  "BACKOFF=3, DEFER=1, IDLE=0, RECEIVE=8, WAITACK=4, WAITAIFS=2, WAITCTS=6, WAITMULTICAST=5, WAITSIFS=7"
attr enumname  Ieee80211Mac
vector 3301  LothianBusNet.bus[4].wlan.mac  RadioState  ETV
attr enum  "IDLE=0, OFF=4, RECV=1, SLEEP=3, TRANSMIT=2"
attr enumname  RadioState
vector 3300  LothianBusNet.bus[4].wlan.mac  State  ETV
attr enum  "BACKOFF=3, DEFER=1, IDLE=0, RECEIVE=8, WAITACK=4, WAITAIFS=2, WAITCTS=6, WAITMULTICAST=5, WAITSIFS=7"
attr enumname  Ieee80211Mac
vector 3307  LothianBusNet.bus[5].wlan.mac  RadioState  ETV
attr enum  "IDLE=0, OFF=4, RECV=1, SLEEP=3, TRANSMIT=2"
attr enumname  RadioState
vector 3306  LothianBusNet.bus[5].wlan.mac  State  ETV
attr enum  "BACKOFF=3, DEFER=1, IDLE=0, RECEIVE=8, WAITACK=4, WAITAIFS=2, WAITCTS=6, WAITMULTICAST=5, WAITSIFS=7"
attr enumname  Ieee80211Mac
vector 3313  LothianBusNet.bus[6].wlan.mac  RadioState  ETV
attr enum  "IDLE=0, OFF=4, RECV=1, SLEEP=3, TRANSMIT=2"
attr enumname  RadioState
vector 3312  LothianBusNet.bus[6].wlan.mac  State  ETV
attr enum  "BACKOFF=3, DEFER=1, IDLE=0, RECEIVE=8, WAITACK=4, WAITAIFS=2, WAITCTS=6, WAITMULTICAST=5, WAITSIFS=7"
attr enumname  Ieee80211Mac
vector 3319  LothianBusNet.bus[7].wlan.mac  RadioState  ETV
attr enum  "IDLE=0, OFF=4, RECV=1, SLEEP=3, TRANSMIT=2"
attr enumname  RadioState
vector 3318  LothianBusNet.bus[7].wlan.mac  State  ETV
attr enum  "BACKOFF=3, DEFER=1, IDLE=0, RECEIVE=8, WAITACK=4, WAITAIFS=2, WAITCTS=6, WAITMULTICAST=5, WAITSIFS=7"
attr enumname  Ieee80211Mac
vector 3325  LothianBusNet.bus[8].wlan.mac  RadioState  ETV
attr enum  "IDLE=0, OFF=4, RECV=1, SLEEP=3, TRANSMIT=2"
attr enumname  RadioState
vector 3324  LothianBusNet.bus[8].wlan.mac  State  ETV
attr enum  "BACKOFF=3, DEFER=1, IDLE=0, RECEIVE=8, WAITACK=4, WAITAIFS=2, WAITCTS=6, WAITMULTICAST=5, WAITSIFS=7"
attr enumname  Ieee80211Mac
vector 3331  LothianBusNet.bus[9].wlan.mac  RadioState  ETV
attr enum  "IDLE=0, OFF=4, RECV=1, SLEEP=3, TRANSMIT=2"
attr enumname  RadioState
vector 3330  LothianBusNet.bus[9].wlan.mac  State  ETV
attr enum  "BACKOFF=3, DEFER=1, IDLE=0, RECEIVE=8, WAITACK=4, WAITAIFS=2, WAITCTS=6, WAITMULTICAST=5, WAITSIFS=7"
attr enumname  Ieee80211Mac
vector 3337  LothianBusNet.bus[10].wlan.mac  RadioState  ETV
attr enum  "IDLE=0, OFF=4, RECV=1, SLEEP=3, TRANSMIT=2"
attr enumname  RadioState
vector 3336  LothianBusNet.bus[10].wlan.mac  State  ETV
attr enum  "BACKOFF=3, DEFER=1, IDLE=0, RECEIVE=8, WAITACK=4, WAITAIFS=2, WAITCTS=6, WAITMULTICAST=5, WAITSIFS=7"
attr enumname  Ieee80211Mac
vector 3343  LothianBusNet.bus[11].wlan.mac  RadioState  ETV
attr enum  "IDLE=0, OFF=4, RECV=1, SLEEP=3, TRANSMIT=2"
attr enumname  RadioState
vector 3342  LothianBusNet.bus[11].wlan.mac  State  ETV
attr enum  "BACKOFF=3, DEFER=1, IDLE=0, RECEIVE=8, WAITACK=4, WAITAIFS=2, WAITCTS=6, WAITMULTICAST=5, WAITSIFS=7"
attr enumname  Ieee80211Mac
vector 3349  LothianBusNet.bus[12].wlan.mac  RadioState  ETV
attr enum  "IDLE=0, OFF=4, RECV=1, SLEEP=3, TRANSMIT=2"
attr enumname  RadioState
vector 3348  LothianBusNet.bus[12].wlan.mac  State  ETV
attr enum  "BACKOFF=3, DEFER=1, IDLE=0, RECEIVE=8, WAITACK=4, WAITAIFS=2, WAITCTS=6, WAITMULTICAST=5, WAITSIFS=7"
attr enumname  Ieee80211Mac
vector 3355  LothianBusNet.bus[13].wlan.mac  RadioState  ETV
attr enum  "IDLE=0, OFF=4, RECV=1, SLEEP=3, TRANSMIT=2"
attr enumname  RadioState
vector 3354  LothianBusNet.bus[13].wlan.mac  State  ETV
attr enum  "BACKOFF=3, DEFER=1, IDLE=0, RECEIVE=8, WAITACK=4, WAITAIFS=2, WAITCTS=6, WAITMULTICAST=5, WAITSIFS=7"
attr enumname  Ieee80211Mac
vector 3361  LothianBusNet.bus[14].wlan.mac  RadioState  ETV
attr enum  "IDLE=0, OFF=4, RECV=1, SLEEP=3, TRANSMIT=2"
attr enumname  RadioState
vector 3360  LothianBusNet.bus[14].wlan.mac  State  ETV
attr enum  "BACKOFF=3, DEFER=1, IDLE=0, RECEIVE=8, WAITACK=4, WAITAIFS=2, WAITCTS=6, WAITMULTICAST=5, WAITSIFS=7"
attr enumname  Ieee80211Mac
vector 3367  LothianBusNet.bus[15].wlan.mac  RadioState  ETV
attr enum  "IDLE=0, OFF=4, RECV=1, SLEEP=3, TRANSMIT=2"
attr enumname  RadioState
vector 3366  LothianBusNet.bus[15].wlan.mac  State  ETV
attr enum  "BACKOFF=3, DEFER=1, IDLE=0, RECEIVE=8, WAITACK=4, WAITAIFS=2, WAITCTS=6, WAITMULTICAST=5, WAITSIFS=7"
attr enumname  Ieee80211Mac
vector 3373  LothianBusNet.bus[16].wlan.mac  RadioState  ETV
attr enum  "IDLE=0, OFF=4, RECV=1, SLEEP=3, TRANSMIT=2"
attr enumname  RadioState
vector 3372  LothianBusNet.bus[16].wlan.mac  State  ETV
attr enum  "BACKOFF=3, DEFER=1, IDLE=0, RECEIVE=8, WAITACK=4, WAITAIFS=2, WAITCTS=6, WAITMULTICAST=5, WAITSIFS=7"
attr enumname  Ieee80211Mac
vector 3379  LothianBusNet.bus[17].wlan.mac  RadioState  ETV
attr enum  "IDLE=0, OFF=4, RECV=1, SLEEP=3, TRANSMIT=2"
attr enumname  RadioState
vector 3378  LothianBusNet.bus[17].wlan.mac  State  ETV
attr enum  "BACKOFF=3, DEFER=1, IDLE=0, RECEIVE=8, WAITACK=4, WAITAIFS=2, WAITCTS=6, WAITMULTICAST=5, WAITSIFS=7"
attr enumname  Ieee80211Mac
vector 3385  LothianBusNet.bus[18].wlan.mac  RadioState  ETV
attr enum  "IDLE=0, OFF=4, RECV=1, SLEEP=3, TRANSMIT=2"
attr enumname  RadioState
vector 3384  LothianBusNet.bus[18].wlan.mac  State  ETV
attr enum  "BACKOFF=3, DEFER=1, IDLE=0, RECEIVE=8, WAITACK=4, WAITAIFS=2, WAITCTS=6, WAITMULTICAST=5, WAITSIFS=7"
attr enumname  Ieee80211Mac
vector 3391  LothianBusNet.bus[19].wlan.mac  RadioState  ETV
attr enum  "IDLE=0, OFF=4, RECV=1, SLEEP=3, TRANSMIT=2"
attr enumname  RadioState
vector 3390  LothianBusNet.bus[19].wlan.mac  State  ETV
attr enum  "BACKOFF=3, DEFER=1, IDLE=0, RECEIVE=8, WAITACK=4, WAITAIFS=2, WAITCTS=6, WAITMULTICAST=5, WAITSIFS=7"
attr enumname  Ieee80211Mac
vector 3397  LothianBusNet.bus[20].wlan.mac  RadioState  ETV
attr enum  "IDLE=0, OFF=4, RECV=1, SLEEP=3, TRANSMIT=2"
attr enumname  RadioState
vector 3396  LothianBusNet.bus[20].wlan.mac  State  ETV
attr enum  "BACKOFF=3, DEFER=1, IDLE=0, RECEIVE=8, WAITACK=4, WAITAIFS=2, WAITCTS=6, WAITMULTICAST=5, WAITSIFS=7"
attr enumname  Ieee80211Mac
vector 3403  LothianBusNet.bus[21].wlan.mac  RadioState  ETV
attr enum  "IDLE=0, OFF=4, RECV=1, SLEEP=3, TRANSMIT=2"
attr enumname  RadioState
vector 3402  LothianBusNet.bus[21].wlan.mac  State  ETV
attr enum  "BACKOFF=3, DEFER=1, IDLE=0, RECEIVE=8, WAITACK=4, WAITAIFS=2, WAITCTS=6, WAITMULTICAST=5, WAITSIFS=7"
attr enumname  Ieee80211Mac
vector 3409  LothianBusNet.bus[22].wlan.mac  RadioState  ETV
attr enum  "IDLE=0, OFF=4, RECV=1, SLEEP=3, TRANSMIT=2"
attr enumname  RadioState
vector 3408  LothianBusNet.bus[22].wlan.mac  State  ETV